<?xml version="1.0" encoding="UTF-8"?>

<!-- generated on Wed Aug 19 18:42:04 2020 by Eclipse SUMO Version v1_6_0+0899-45db7f4775
<configuration xmlns:xsi="http://www.w3.org/2001/XMLSchema-instance" xsi:noNamespaceSchemaLocation="http://sumo.dlr.de/xsd/sumoConfiguration.xsd">

    <input>
        <net-file value="/home/sheng/git/Ambulance-Routing/net_files/ncku.net.xml"/>
        <route-files value="/home/sheng/git/Ambulance-Routing/net_files/ncku.rou.xml"/>
        <additional-files value="/home/sheng/git/Ambulance-Routing/net_files/ncku.poly.xml"/>
    </input>

    <output>
        <tripinfo-output value="/home/sheng/git/Ambulance-Routing/net_files/tripinfos.xml"/>
        <save-state.prefix value="/home/sheng/git/Ambulance-Routing/net_files/state"/>
    </output>

    <report>
        <log value="/home/sheng/git/Ambulance-Routing/net_files/sumo_log.txt"/>
        <no-step-log value="true"/>
    </report>

    <emissions>
        <phemlight-path value="/home/sheng/git/Ambulance-Routing/net_files/./PHEMlight/"/>
    </emissions>

    <traci_server>
        <remote-port value="49543"/>
    </traci_server>

</configuration>
-->

<tripinfos xmlns:xsi="http://www.w3.org/2001/XMLSchema-instance" xsi:noNamespaceSchemaLocation="http://sumo.dlr.de/xsd/tripinfo_file.xsd">
    <tripinfo id="13" depart="13.00" departLane="-161409498#1_0" departPos="5.10" departSpeed="0.00" departDelay="0.00" arrival="53.00" arrivalLane="-228022819#0_1" arrivalPos="12.00" arrivalSpeed="19.74" duration="40.00" routeLength="197.02" waitingTime="17.00" waitingCount="1" stopTime="0.00" timeLoss="28.63" rerouteNo="0" devices="tripinfo_13" vType="DEFAULT_VEHTYPE" speedFactor="1.05" vaporized=""/>
    <tripinfo id="17" depart="17.00" departLane="111343183_0" departPos="5.10" departSpeed="0.00" departDelay="0.00" arrival="72.00" arrivalLane="279049706#0_1" arrivalPos="28.19" arrivalSpeed="14.69" duration="55.00" routeLength="912.47" waitingTime="0.00" waitingCount="0" stopTime="0.00" timeLoss="10.25" rerouteNo="0" devices="tripinfo_17" vType="DEFAULT_VEHTYPE" speedFactor="0.93" vaporized=""/>
    <tripinfo id="15" depart="15.00" departLane="496257368#17_0" departPos="5.10" departSpeed="0.00" departDelay="0.00" arrival="101.00" arrivalLane="319100698#2_1" arrivalPos="104.79" arrivalSpeed="20.71" duration="86.00" routeLength="912.17" waitingTime="28.00" waitingCount="2" stopTime="0.00" timeLoss="55.79" rerouteNo="0" devices="tripinfo_15" vType="DEFAULT_VEHTYPE" speedFactor="1.12" vaporized=""/>
    <tripinfo id="75" depart="75.00" departLane="81357763#0_0" departPos="5.10" departSpeed="0.00" departDelay="0.00" arrival="114.00" arrivalLane="306974310#1_0" arrivalPos="99.34" arrivalSpeed="20.66" duration="39.00" routeLength="524.13" waitingTime="0.00" waitingCount="0" stopTime="0.00" timeLoss="8.53" rerouteNo="0" devices="tripinfo_75" vType="DEFAULT_VEHTYPE" speedFactor="0.94" vaporized=""/>
    <tripinfo id="78" depart="78.00" departLane="-81357763#1_0" departPos="5.10" departSpeed="0.00" departDelay="0.00" arrival="114.00" arrivalLane="297896463#2_0" arrivalPos="29.05" arrivalSpeed="11.35" duration="36.00" routeLength="234.73" waitingTime="5.00" waitingCount="1" stopTime="0.00" timeLoss="20.30" rerouteNo="0" devices="tripinfo_78" vType="DEFAULT_VEHTYPE" speedFactor="0.96" vaporized=""/>
    <tripinfo id="38" depart="38.00" departLane="536831320#5_0" departPos="5.10" departSpeed="0.00" departDelay="0.00" arrival="120.00" arrivalLane="160253725#13_0" arrivalPos="58.63" arrivalSpeed="12.23" duration="82.00" routeLength="828.72" waitingTime="17.00" waitingCount="1" stopTime="0.00" timeLoss="38.39" rerouteNo="0" devices="tripinfo_38" vType="DEFAULT_VEHTYPE" speedFactor="0.97" vaporized=""/>
    <tripinfo id="53" depart="53.00" departLane="-260615169#2_0" departPos="5.10" departSpeed="0.00" departDelay="0.00" arrival="122.00" arrivalLane="160095000#12_0" arrivalPos="44.94" arrivalSpeed="15.96" duration="69.00" routeLength="895.63" waitingTime="0.00" waitingCount="0" stopTime="0.00" timeLoss="13.50" rerouteNo="0" devices="tripinfo_53" vType="DEFAULT_VEHTYPE" speedFactor="1.17" vaporized=""/>
    <tripinfo id="71" depart="71.00" departLane="-497901212#5_0" departPos="5.10" departSpeed="0.00" departDelay="0.00" arrival="123.00" arrivalLane="497901212#8_0" arrivalPos="271.88" arrivalSpeed="13.43" duration="52.00" routeLength="552.88" waitingTime="0.00" waitingCount="0" stopTime="0.00" timeLoss="13.73" rerouteNo="0" devices="tripinfo_71" vType="DEFAULT_VEHTYPE" speedFactor="1.04" vaporized=""/>
    <tripinfo id="30" depart="30.00" departLane="81239973#5_0" departPos="5.10" departSpeed="0.00" departDelay="0.00" arrival="140.00" arrivalLane="302241611#2_0" arrivalPos="123.22" arrivalSpeed="24.04" duration="110.00" routeLength="1382.11" waitingTime="13.00" waitingCount="1" stopTime="0.00" timeLoss="39.40" rerouteNo="0" devices="tripinfo_30" vType="DEFAULT_VEHTYPE" speedFactor="1.13" vaporized=""/>
    <tripinfo id="4" depart="4.00" departLane="159279417#0_0" departPos="5.10" departSpeed="0.00" departDelay="0.00" arrival="142.00" arrivalLane="-152086662_0" arrivalPos="181.25" arrivalSpeed="22.79" duration="138.00" routeLength="1013.52" waitingTime="53.00" waitingCount="1" stopTime="0.00" timeLoss="79.48" rerouteNo="0" devices="tripinfo_4" vType="DEFAULT_VEHTYPE" speedFactor="1.08" vaporized=""/>
    <tripinfo id="25" depart="25.00" departLane="108071721#2_0" departPos="5.10" departSpeed="0.00" departDelay="0.00" arrival="142.00" arrivalLane="-405115644#5_0" arrivalPos="75.17" arrivalSpeed="18.63" duration="117.00" routeLength="1507.11" waitingTime="0.00" waitingCount="0" stopTime="0.00" timeLoss="16.26" rerouteNo="0" devices="tripinfo_25" vType="DEFAULT_VEHTYPE" speedFactor="0.89" vaporized=""/>
    <tripinfo id="0" depart="0.00" departLane="302241611#1_0" departPos="5.10" departSpeed="0.00" departDelay="0.00" arrival="147.00" arrivalLane="-152086640#1_0" arrivalPos="74.59" arrivalSpeed="22.33" duration="147.00" routeLength="2071.78" waitingTime="31.00" waitingCount="2" stopTime="0.00" timeLoss="64.16" rerouteNo="0" devices="tripinfo_0" vType="DEFAULT_VEHTYPE" speedFactor="1.06" vaporized=""/>
    <tripinfo id="3" depart="3.00" departLane="520547190#4_0" departPos="5.10" departSpeed="0.00" departDelay="0.00" arrival="149.00" arrivalLane="-160321077#2_0" arrivalPos="74.72" arrivalSpeed="13.81" duration="146.00" routeLength="1093.95" waitingTime="75.00" waitingCount="2" stopTime="0.00" timeLoss="95.07" rerouteNo="0" devices="tripinfo_3" vType="DEFAULT_VEHTYPE" speedFactor="1.01" vaporized=""/>
    <tripinfo id="60" depart="60.00" departLane="405115644#3_0" departPos="5.10" departSpeed="0.00" departDelay="0.00" arrival="149.00" arrivalLane="260615170#11_0" arrivalPos="28.73" arrivalSpeed="14.76" duration="89.00" routeLength="1093.14" waitingTime="7.00" waitingCount="1" stopTime="0.00" timeLoss="33.48" rerouteNo="0" devices="tripinfo_60" vType="DEFAULT_VEHTYPE" speedFactor="1.14" vaporized=""/>
    <tripinfo id="34" depart="34.00" departLane="-611774240#2_0" departPos="5.10" departSpeed="0.00" departDelay="0.00" arrival="161.00" arrivalLane="-531438436_0" arrivalPos="124.86" arrivalSpeed="13.85" duration="127.00" routeLength="1214.52" waitingTime="24.00" waitingCount="1" stopTime="0.00" timeLoss="51.26" rerouteNo="0" devices="tripinfo_34" vType="DEFAULT_VEHTYPE" speedFactor="1.01" vaporized=""/>
    <tripinfo id="32" depart="32.00" departLane="496332194#16_0" departPos="5.10" departSpeed="0.00" departDelay="0.00" arrival="162.00" arrivalLane="405115649#1_1" arrivalPos="419.70" arrivalSpeed="32.39" duration="130.00" routeLength="1293.90" waitingTime="34.00" waitingCount="2" stopTime="0.00" timeLoss="70.28" rerouteNo="0" devices="tripinfo_32" vType="DEFAULT_VEHTYPE" speedFactor="1.18" vaporized=""/>
    <tripinfo id="101" depart="101.00" departLane="496332197#0_0" departPos="5.10" departSpeed="0.00" departDelay="0.00" arrival="173.00" arrivalLane="-306997498#0_0" arrivalPos="85.61" arrivalSpeed="11.66" duration="72.00" routeLength="813.87" waitingTime="0.00" waitingCount="0" stopTime="0.00" timeLoss="7.36" rerouteNo="0" devices="tripinfo_101" vType="DEFAULT_VEHTYPE" speedFactor="0.91" vaporized=""/>
    <tripinfo id="56" depart="56.00" departLane="228022809#5_0" departPos="5.10" departSpeed="0.00" departDelay="0.00" arrival="180.00" arrivalLane="-307097147#2_0" arrivalPos="105.17" arrivalSpeed="14.97" duration="124.00" routeLength="846.18" waitingTime="51.00" waitingCount="2" stopTime="0.00" timeLoss="75.32" rerouteNo="0" devices="tripinfo_56" vType="DEFAULT_VEHTYPE" speedFactor="1.10" vaporized=""/>
    <tripinfo id="94" depart="94.00" departLane="-314693930#0_0" departPos="5.10" departSpeed="0.00" departDelay="0.00" arrival="181.00" arrivalLane="160095102#2_0" arrivalPos="82.32" arrivalSpeed="12.88" duration="87.00" routeLength="1033.01" waitingTime="20.00" waitingCount="1" stopTime="0.00" timeLoss="37.93" rerouteNo="0" devices="tripinfo_94" vType="DEFAULT_VEHTYPE" speedFactor="1.02" vaporized=""/>
    <tripinfo id="49" depart="49.00" departLane="72871334#2_0" departPos="5.10" departSpeed="0.00" departDelay="0.00" arrival="182.00" arrivalLane="496332199#1_0" arrivalPos="138.93" arrivalSpeed="12.12" duration="133.00" routeLength="1153.10" waitingTime="41.00" waitingCount="2" stopTime="0.00" timeLoss="67.55" rerouteNo="0" devices="tripinfo_49" vType="DEFAULT_VEHTYPE" speedFactor="0.90" vaporized=""/>
    <tripinfo id="9" depart="9.00" departLane="496257368#20_0" departPos="5.10" departSpeed="0.00" departDelay="0.00" arrival="183.00" arrivalLane="-108071721#2_0" arrivalPos="143.98" arrivalSpeed="12.43" duration="174.00" routeLength="1337.47" waitingTime="77.00" waitingCount="2" stopTime="0.00" timeLoss="104.99" rerouteNo="0" devices="tripinfo_9" vType="DEFAULT_VEHTYPE" speedFactor="0.94" vaporized=""/>
    <tripinfo id="61" depart="61.00" departLane="41389183#2_0" departPos="5.10" departSpeed="0.00" departDelay="0.00" arrival="189.00" arrivalLane="259871063#0_0" arrivalPos="66.09" arrivalSpeed="13.92" duration="128.00" routeLength="544.28" waitingTime="68.00" waitingCount="3" stopTime="0.00" timeLoss="96.12" rerouteNo="0" devices="tripinfo_61" vType="DEFAULT_VEHTYPE" speedFactor="1.02" vaporized=""/>
    <tripinfo id="77" depart="77.00" departLane="-260615170#7_0" departPos="5.10" departSpeed="0.00" departDelay="0.00" arrival="190.00" arrivalLane="-496249900#0_0" arrivalPos="131.30" arrivalSpeed="14.25" duration="113.00" routeLength="1708.82" waitingTime="0.00" waitingCount="0" stopTime="0.00" timeLoss="25.64" rerouteNo="0" devices="tripinfo_77" vType="DEFAULT_VEHTYPE" speedFactor="1.06" vaporized=""/>
    <tripinfo id="48" depart="48.00" departLane="81357763#3_0" departPos="5.10" departSpeed="0.00" departDelay="0.00" arrival="191.00" arrivalLane="259871043#0_0" arrivalPos="91.88" arrivalSpeed="19.18" duration="143.00" routeLength="547.08" waitingTime="93.00" waitingCount="2" stopTime="0.00" timeLoss="114.44" rerouteNo="0" devices="tripinfo_48" vType="DEFAULT_VEHTYPE" speedFactor="1.00" vaporized=""/>
    <tripinfo id="82" depart="82.00" departLane="496714508#2_0" departPos="5.10" departSpeed="0.00" departDelay="0.00" arrival="194.00" arrivalLane="-160095097#2_0" arrivalPos="38.96" arrivalSpeed="13.90" duration="112.00" routeLength="1043.44" waitingTime="34.00" waitingCount="2" stopTime="0.00" timeLoss="58.79" rerouteNo="0" devices="tripinfo_82" vType="DEFAULT_VEHTYPE" speedFactor="1.01" vaporized=""/>
    <tripinfo id="114" depart="114.00" departLane="-298600773#4_0" departPos="5.10" departSpeed="0.00" departDelay="0.00" arrival="195.00" arrivalLane="675775395#1_0" arrivalPos="195.88" arrivalSpeed="22.48" duration="81.00" routeLength="465.52" waitingTime="38.00" waitingCount="1" stopTime="0.00" timeLoss="54.15" rerouteNo="0" devices="tripinfo_114" vType="DEFAULT_VEHTYPE" speedFactor="1.06" vaporized=""/>
    <tripinfo id="43" depart="43.00" departLane="81509011#2_0" departPos="5.10" departSpeed="0.00" departDelay="0.00" arrival="205.00" arrivalLane="228022819#8_0" arrivalPos="29.35" arrivalSpeed="25.76" duration="162.00" routeLength="1741.02" waitingTime="53.00" waitingCount="2" stopTime="0.00" timeLoss="90.49" rerouteNo="0" devices="tripinfo_43" vType="DEFAULT_VEHTYPE" speedFactor="0.96" vaporized=""/>
    <tripinfo id="11" depart="11.00" departLane="-81509011#2_0" departPos="5.10" departSpeed="0.00" departDelay="0.00" arrival="206.00" arrivalLane="-298600770#4_0" arrivalPos="90.91" arrivalSpeed="20.96" duration="195.00" routeLength="2565.89" waitingTime="27.00" waitingCount="3" stopTime="0.00" timeLoss="84.93" rerouteNo="0" devices="tripinfo_11" vType="DEFAULT_VEHTYPE" speedFactor="1.09" vaporized=""/>
    <tripinfo id="178" depart="178.00" departLane="683948901_0" departPos="5.10" departSpeed="0.00" departDelay="0.00" arrival="214.00" arrivalLane="-497944542_0" arrivalPos="17.96" arrivalSpeed="20.00" duration="36.00" routeLength="557.47" waitingTime="0.00" waitingCount="0" stopTime="0.00" timeLoss="8.01" rerouteNo="0" devices="tripinfo_178" vType="DEFAULT_VEHTYPE" speedFactor="0.94" vaporized=""/>
    <tripinfo id="46" depart="46.00" departLane="496249898#0_0" departPos="5.10" departSpeed="0.00" departDelay="0.00" arrival="215.00" arrivalLane="159216680#0_0" arrivalPos="89.99" arrivalSpeed="13.44" duration="169.00" routeLength="1070.90" waitingTime="78.00" waitingCount="3" stopTime="0.00" timeLoss="115.76" rerouteNo="0" devices="tripinfo_46" vType="DEFAULT_VEHTYPE" speedFactor="1.04" vaporized=""/>
    <tripinfo id="126" depart="126.00" departLane="-160253701#3_0" departPos="5.10" departSpeed="0.00" departDelay="0.00" arrival="215.00" arrivalLane="160253725#11_0" arrivalPos="59.52" arrivalSpeed="12.56" duration="89.00" routeLength="1041.04" waitingTime="0.00" waitingCount="0" stopTime="0.00" timeLoss="8.99" rerouteNo="0" devices="tripinfo_126" vType="DEFAULT_VEHTYPE" speedFactor="0.94" vaporized=""/>
    <tripinfo id="79" depart="79.00" departLane="-486363286#1_0" departPos="5.10" departSpeed="0.00" departDelay="0.00" arrival="216.00" arrivalLane="-482007537#0_0" arrivalPos="98.42" arrivalSpeed="1.71" duration="137.00" routeLength="350.81" waitingTime="0.00" waitingCount="0" stopTime="0.00" timeLoss="34.77" rerouteNo="0" devices="tripinfo_79" vType="DEFAULT_VEHTYPE" speedFactor="0.98" vaporized=""/>
    <tripinfo id="120" depart="120.00" departLane="159216680#4_0" departPos="5.10" departSpeed="0.00" departDelay="0.00" arrival="218.00" arrivalLane="297757244#2_1" arrivalPos="210.26" arrivalSpeed="30.24" duration="98.00" routeLength="804.85" waitingTime="45.00" waitingCount="1" stopTime="0.00" timeLoss="65.71" rerouteNo="0" devices="tripinfo_120" vType="DEFAULT_VEHTYPE" speedFactor="1.10" vaporized=""/>
    <tripinfo id="87" depart="87.00" departLane="496257368#19_0" departPos="1.19" departSpeed="0.00" departDelay="0.00" arrival="222.00" arrivalLane="-317035631#0_0" arrivalPos="58.88" arrivalSpeed="12.59" duration="135.00" routeLength="1410.28" waitingTime="37.00" waitingCount="1" stopTime="0.00" timeLoss="63.37" rerouteNo="0" devices="tripinfo_87" vType="DEFAULT_VEHTYPE" speedFactor="0.97" vaporized=""/>
    <tripinfo id="ambulance" depart="0.00" departLane="-161409475#0_0" departPos="5.10" departSpeed="0.00" departDelay="0.00" arrival="232.00" arrivalLane="161409493#0_0" arrivalPos="129.01" arrivalSpeed="5.87" duration="232.00" routeLength="1378.54" waitingTime="65.00" waitingCount="3" stopTime="0.00" timeLoss="108.61" rerouteNo="0" devices="tripinfo_ambulance" vType="DEFAULT_VEHTYPE" speedFactor="1.06" vaporized=""/>
</tripinfos>
