<?xml version="1.0" encoding="UTF-8"?>

<!-- generated on Mon Aug 17 00:20:11 2020 by Eclipse SUMO Version v1_6_0+0899-45db7f4775
<configuration xmlns:xsi="http://www.w3.org/2001/XMLSchema-instance" xsi:noNamespaceSchemaLocation="http://sumo.dlr.de/xsd/sumoConfiguration.xsd">

    <input>
        <net-file value="/home/sheng/git/Ambulance-Routing/net_files/ncku.net.xml"/>
        <route-files value="/home/sheng/git/Ambulance-Routing/net_files/ncku.rou.xml"/>
        <additional-files value="/home/sheng/git/Ambulance-Routing/net_files/ncku.poly.xml"/>
    </input>

    <output>
        <tripinfo-output value="/home/sheng/git/Ambulance-Routing/net_files/tripinfos.xml"/>
        <save-state.prefix value="/home/sheng/git/Ambulance-Routing/net_files/state"/>
    </output>

    <report>
        <log value="/home/sheng/git/Ambulance-Routing/net_files/sumo_log.txt"/>
        <no-step-log value="true"/>
    </report>

    <emissions>
        <phemlight-path value="/home/sheng/git/Ambulance-Routing/net_files/./PHEMlight/"/>
    </emissions>

    <traci_server>
        <remote-port value="52531"/>
    </traci_server>

</configuration>
-->

<tripinfos xmlns:xsi="http://www.w3.org/2001/XMLSchema-instance" xsi:noNamespaceSchemaLocation="http://sumo.dlr.de/xsd/tripinfo_file.xsd">
</tripinfos>
